TITLE = Unstructured grid data
VARIABLES =  "x0" "x1" "rho" "rhoU" "rhoV" "rhoE"
ZONE   T= "ZONE0 Triag", N=1670, E=3178, F=FEPOINT, ET=TRIANGLE, SOLUTIONTIME=0.00000000000000e+00	
+2.50000000000000e-02 +0.00000000000000e+00 +1.00000000000000e+00 +2.83972000000000e+00 +5.94679161292529e-17 +6.53200000000000e+00
+5.00000000000000e-02 +0.00000000000000e+00 +1.00000000000000e+00 +2.83972000000000e+00 +3.80885026974298e-16 +6.53200000000000e+00
+7.50000000000000e-02 +0.00000000000000e+00 +1.00000000000000e+00 +2.83972000000000e+00 +6.92063122827868e-16 +6.53200000000000e+00
+1.00000000000000e-01 +0.00000000000000e+00 +1.00000000000000e+00 +2.83972000000000e+00 +9.54070218702020e-16 +6.53200000000000e+00
+1.25000000000000e-01 +0.00000000000000e+00 +9.99999999999926e-01 +2.83971999999982e+00 +1.12081172822546e-13 +6.53199999999952e+00
+1.50000000000000e-01 +0.00000000000000e+00 +1.00000000000086e+00 +2.83972000000194e+00 +7.02831813074836e-13 +6.53200000000505e+00
+1.75000000000000e-01 +0.00000000000000e+00 +1.00000000000209e+00 +2.83972000000470e+00 -6.05126501138358e-13 +6.53200000001223e+00
+2.00000000000000e-01 +0.00000000000000e+00 +1.00000000000715e+00 +2.83972000001666e+00 -1.69395061616798e-12 +6.53200000004350e+00
+2.25000000000000e-01 +0.00000000000000e+00 +1.00000000002419e+00 +2.83972000005663e+00 -2.02533254818613e-11 +6.53200000014791e+00
+2.50000000000000e-01 +0.00000000000000e+00 +1.00000000004182e+00 +2.83972000009913e+00 -4.64662509241313e-11 +6.53200000025918e+00
+2.75000000000000e-01 +0.00000000000000e+00 +9.99999999994943e-01 +2.83972000001072e+00 +3.45523442618398e-11 +6.53200000003382e+00
+3.00000000000000e-01 +0.00000000000000e+00 +9.99999999936962e-01 +2.83971999991108e+00 +1.80282420625093e-10 +6.53199999978052e+00
+3.25000000000000e-01 +0.00000000000000e+00 +9.99999999784971e-01 +2.83971999962573e+00 +1.50306941348731e-09 +6.53199999905242e+00
+3.50000000000000e-01 +0.00000000000000e+00 +9.99999998847822e-01 +2.83971999591641e+00 +3.73760723576091e-09 +6.53199998877978e+00
+3.75000000000000e-01 +0.00000000000000e+00 +9.99999994981036e-01 +2.83971998667443e+00 +8.11693204147782e-09 +6.53199996452907e+00
+4.00000000000000e-01 +0.00000000000000e+00 +9.99999995894548e-01 +2.83971999142532e+00 +2.17275836843916e-08 +6.53199997783529e+00
+4.25000000000000e-01 +0.00000000000000e+00 +1.00000001040901e+00 +2.83972002336828e+00 +2.83497200679211e-08 +6.53200006076982e+00
+4.50000000000000e-01 +0.00000000000000e+00 +1.00000003130704e+00 +2.83972007747996e+00 +3.11977936870609e-08 +6.53200020315490e+00
+4.75000000000000e-01 +0.00000000000000e+00 +1.00000033670553e+00 +2.83972079013026e+00 +1.29044787749078e-07 +6.53200206444433e+00
+5.00000000000000e-01 +0.00000000000000e+00 +1.00000074802401e+00 +2.83972174263988e+00 +1.58966113159476e-07 +6.53200455063526e+00
+5.25000000000000e-01 +0.00000000000000e+00 +1.00000132239855e+00 +2.83972310670717e+00 -7.50978675370129e-07 +6.53200811910088e+00
+5.50000000000000e-01 +0.00000000000000e+00 +1.00000257810855e+00 +2.83972600302062e+00 -1.34126994113958e-06 +6.53201567488794e+00
+5.75000000000000e-01 +0.00000000000000e+00 +1.00000106425272e+00 +2.83972233681609e+00 +7.94756962030679e-07 +6.53200606878511e+00
+6.00000000000000e-01 +0.00000000000000e+00 +9.99998558693848e-01 +2.83971640162664e+00 +7.06999985176474e-06 +6.53199054743341e+00
+6.25000000000000e-01 +0.00000000000000e+00 +9.99996154379092e-01 +2.83971070394289e+00 +1.67625713531879e-05 +6.53197564584767e+00
+6.50000000000000e-01 +0.00000000000000e+00 +9.99981879083557e-01 +2.83967720044651e+00 +3.27780192514590e-05 +6.53188810255586e+00
+6.75000000000000e-01 +0.00000000000000e+00 +9.99958871387917e-01 +2.83962336142127e+00 +5.13600802929980e-05 +6.53174745602128e+00
+7.00000000000000e-01 +0.00000000000000e+00 +9.99948166090813e-01 +2.83959825787959e+00 +6.36082125179564e-05 +6.53168175603509e+00
+7.25000000000000e-01 +0.00000000000000e+00 +9.99973971019559e-01 +2.83965598582519e+00 +7.48169151980445e-05 +6.53183334737523e+00
+7.50000000000000e-01 +0.00000000000000e+00 +1.00005576836841e+00 +2.83986449799294e+00 +3.98194915257900e-05 +6.53237795643596e+00
+7.75000000000000e-01 +0.00000000000000e+00 +1.00021407252809e+00 +2.84024995610888e+00 -1.13930095204126e-04 +6.53338361173940e+00
+8.00000000000000e-01 +0.00000000000000e+00 +1.00048435299102e+00 +2.84088974340659e+00 -3.71448498967436e-04 +6.53505956533908e+00
+8.25000000000000e-01 +0.00000000000000e+00 +1.00079257119025e+00 +2.84161756174614e+00 -6.94752701998928e-04 +6.53696081184667e+00
+8.50000000000000e-01 +0.00000000000000e+00 +1.00139608214997e+00 +2.84299811507801e+00 -1.40888786950458e-03 +6.54058749642000e+00
+8.75000000000000e-01 +0.00000000000000e+00 +1.00188101712458e+00 +2.84410168361266e+00 -1.84301445137783e-03 +6.54349235515706e+00
+9.00000000000000e-01 +0.00000000000000e+00 +1.00203375800982e+00 +2.84455089755370e+00 -1.47388914296104e-03 +6.54449014147728e+00
+9.25000000000000e-01 +0.00000000000000e+00 +1.00182814229022e+00 +2.84417845020177e+00 -8.48036421461872e-04 +6.54331649944536e+00
+9.50000000000000e-01 +0.00000000000000e+00 +1.00061207642261e+00 +2.84134715516182e+00 +3.37791702363577e-04 +6.53585944812290e+00
+9.75000000000000e-01 +0.00000000000000e+00 +9.97935081495946e-01 +2.83507495962331e+00 +2.99010157204573e-03 +6.51943706470506e+00
+1.00000000000000e+00 +0.00000000000000e+00 +9.95526261375458e-01 +2.82937521234030e+00 +5.31039813632838e-03 +6.50462514416764e+00
+1.00000000000000e+00 +2.50000000000000e-02 +9.85304814036113e-01 +2.80511772088827e+00 +1.58815949378552e-02 +6.44183145398203e+00
+1.00000000000000e+00 +5.00000000000000e-02 +9.67403327801815e-01 +2.76250407807477e+00 +3.43782091317163e-02 +6.33176039572943e+00
+1.00000000000000e+00 +7.50000000000000e-02 +9.40718837472718e-01 +2.69824897665006e+00 +6.15907219196735e-02 +6.16728513220802e+00
+1.00000000000000e+00 +1.00000000000000e-01 +9.11491594858776e-01 +2.62713871212542e+00 +9.07482533303522e-02 +5.98686361625216e+00
+1.00000000000000e+00 +1.25000000000000e-01 +8.79993652845221e-01 +2.54925793602514e+00 +1.20959178298214e-01 +5.79181137670543e+00
+1.00000000000000e+00 +1.50000000000000e-01 +8.45012845289834e-01 +2.46149477118283e+00 +1.53225380020563e-01 +5.57445214153209e+00
+1.00000000000000e+00 +1.75000000000000e-01 +8.11357655373248e-01 +2.37556822997463e+00 +1.82639961077370e-01 +5.36447228315932e+00
+1.00000000000000e+00 +2.00000000000000e-01 +7.79546033334038e-01 +2.29322264009264e+00 +2.09030209049979e-01 +5.16555991738455e+00
+1.00000000000000e+00 +2.25000000000000e-01 +7.46042430020098e-01 +2.20499606256674e+00 +2.34998057744173e-01 +4.95539399520762e+00
+1.00000000000000e+00 +2.50000000000000e-01 +7.12993193015982e-01 +2.11713643565808e+00 +2.59590174373444e-01 +4.74754158498756e+00
+1.00000000000000e+00 +2.75000000000000e-01 +6.86382763092750e-01 +2.04515363552229e+00 +2.77716073699214e-01 +4.57956986805394e+00
+1.00000000000000e+00 +3.00000000000000e-01 +6.61130631825178e-01 +1.97614933275594e+00 +2.93875728328838e-01 +4.41967115359129e+00
+1.00000000000000e+00 +3.25000000000000e-01 +6.48230720238372e-01 +1.94060950296437e+00 +3.01742157320154e-01 +4.33766636040562e+00
+1.00000000000000e+00 +3.50000000000000e-01 +6.45699137502255e-01 +1.93354843579729e+00 +3.03260578654378e-01 +4.32132944309877e+00
+1.00000000000000e+00 +3.75000000000000e-01 +6.50277613099370e-01 +1.94620865898682e+00 +3.00434633206564e-01 +4.35040509553576e+00
+1.00000000000000e+00 +4.00000000000000e-01 +6.56259859915027e-01 +1.96281355500196e+00 +2.96660906247292e-01 +4.38857470683139e+00
+1.00000000000000e+00 +4.25000000000000e-01 +6.58965931793911e-01 +1.97034963680951e+00 +2.95177915556791e-01 +4.40582688766349e+00
+1.00000000000000e+00 +4.50000000000000e-01 +6.59129536973480e-01 +1.97086753215998e+00 +2.95546150546746e-01 +4.40682799610070e+00
+1.00000000000000e+00 +4.75000000000000e-01 +6.58365911338996e-01 +1.96884565333697e+00 +2.96247228525362e-01 +4.40193272548621e+00
+1.00000000000000e+00 +5.00000000000000e-01 +6.57479103217705e-01 +1.96617253701770e+00 +2.96421766993616e-01 +4.39638393222408e+00
+1.00000000000000e+00 +5.25000000000000e-01 +6.55855452344573e-01 +1.96050561398896e+00 +2.95700579694475e-01 +4.38597282267095e+00
+1.00000000000000e+00 +5.50000000000000e-01 +6.54192844023033e-01 +1.95440588695027e+00 +2.94750813948076e-01 +4.37486329200204e+00
+1.00000000000000e+00 +5.75000000000000e-01 +6.54298029048582e-01 +1.95471501238604e+00 +2.94827337756660e-01 +4.37528032763196e+00
+1.00000000000000e+00 +6.00000000000000e-01 +6.64415699434254e-01 +1.99173604924950e+00 +3.00271126456271e-01 +4.44254966861736e+00
+1.00000000000000e+00 +6.25000000000000e-01 +6.98906160535166e-01 +2.11867963701235e+00 +3.19039097470307e-01 +4.67442702441609e+00
+1.00000000000000e+00 +6.50000000000000e-01 +7.60637520959288e-01 +2.34647597863111e+00 +3.53251640578973e-01 +5.09207977715938e+00
+1.00000000000000e+00 +6.75000000000000e-01 +8.22947324338553e-01 +2.57667417732088e+00 +3.88214752583995e-01 +5.51538351540680e+00
+1.00000000000000e+00 +7.00000000000000e-01 +8.57631205879707e-01 +2.70520136340903e+00 +4.07697481271127e-01 +5.75252487414571e+00
+1.00000000000000e+00 +7.25000000000000e-01 +8.71783907608042e-01 +2.75802602885006e+00 +4.15164090638277e-01 +5.85011686821007e+00
+1.00000000000000e+00 +7.50000000000000e-01 +8.72546484393507e-01 +2.76182168960374e+00 +4.15226176317287e-01 +5.85668214503228e+00
+1.00000000000000e+00 +7.75000000000000e-01 +8.71373428377167e-01 +2.75850369197714e+00 +4.14818840833180e-01 +5.85000669687384e+00
+1.00000000000000e+00 +8.00000000000000e-01 +8.72409534722088e-01 +2.76121790660869e+00 +4.16629918228626e-01 +5.85741452893268e+00
+1.00000000000000e+00 +8.25000000000000e-01 +8.75512102196155e-01 +2.76858081417684e+00 +4.19550859160215e-01 +5.87576980388756e+00
+1.00000000000000e+00 +8.50000000000000e-01 +8.54455386685560e-01 +2.70781834520250e+00 +3.94041452506504e-01 +5.73757280865133e+00
+1.00000000000000e+00 +8.75000000000000e-01 +7.33120906296054e-01 +2.36155596326580e+00 +2.49356423960580e-01 +4.94962669503511e+00
+1.00000000000000e+00 +9.00000000000000e-01 +5.72680547807624e-01 +1.89289569290491e+00 +7.10192652519495e-02 +3.90276505797199e+00
+1.00000000000000e+00 +9.25000000000000e-01 +5.04299006574030e-01 +1.68703511425073e+00 +3.20181603777854e-03 +3.45366874594910e+00
+1.00000000000000e+00 +9.50000000000000e-01 +4.99654187134516e-01 +1.67223794308286e+00 -2.80457725725681e-04 +3.42271357323403e+00
+1.00000000000000e+00 +9.75000000000000e-01 +5.00025832063616e-01 +1.67340128615340e+00 +2.16253925607700e-05 +3.42517367194493e+00
+1.00000000000000e+00 +1.00000000000000e+00 +5.00068805977848e-01 +1.67353541884156e+00 +5.53213473419848e-05 +3.42545477552523e+00
+9.75000000000000e-01 +1.00000000000000e+00 +5.00052039890516e-01 +1.67348318821826e+00 +4.18903297686864e-05 +3.42534483202018e+00
+9.50000000000000e-01 +1.00000000000000e+00 +5.00028193269154e-01 +1.67340863306996e+00 +2.26473286595015e-05 +3.42518743760080e+00
+9.25000000000000e-01 +1.00000000000000e+00 +5.00012869667637e-01 +1.67336052442805e+00 +1.01764779331705e-05 +3.42508553100180e+00
+9.00000000000000e-01 +1.00000000000000e+00 +5.00008536184745e-01 +1.67334683729283e+00 +6.77828417188663e-06 +3.42505674361058e+00
+8.75000000000000e-01 +1.00000000000000e+00 +5.00004952405855e-01 +1.67333555863835e+00 +3.91215683712157e-06 +3.42503299789929e+00
+8.50000000000000e-01 +1.00000000000000e+00 +5.00003480348003e-01 +1.67333104441302e+00 +2.72606033360685e-06 +3.42502353670234e+00
+8.25000000000000e-01 +1.00000000000000e+00 +5.00001031769971e-01 +1.67332331300239e+00 +8.30491991429609e-07 +3.42500714303972e+00
+8.00000000000000e-01 +1.00000000000000e+00 +5.00000037902731e-01 +1.67332010435915e+00 +4.78409278069607e-08 +3.42500023383383e+00
+7.75000000000000e-01 +1.00000000000000e+00 +5.00000110845163e-01 +1.67332033732864e+00 +1.00490069258612e-07 +3.42500072454782e+00
+7.50000000000000e-01 +1.00000000000000e+00 +5.00000085588855e-01 +1.67332025813769e+00 +7.96966062697127e-08 +3.42500055688034e+00
+7.25000000000000e-01 +1.00000000000000e+00 +5.00000031291194e-01 +1.67332009292857e+00 +3.04579419005350e-08 +3.42500020209345e+00
+7.00000000000000e-01 +1.00000000000000e+00 +5.00000001105006e-01 +1.67332000355524e+00 +8.59234725296362e-10 +3.42500000763789e+00
+6.75000000000000e-01 +1.00000000000000e+00 +4.99999999413390e-01 +1.67331999833205e+00 -5.14292536163145e-10 +3.42499999668032e+00
+6.50000000000000e-01 +1.00000000000000e+00 +4.99999997933543e-01 +1.67331999375426e+00 -1.70098988090226e-09 +3.42499998706865e+00
+6.25000000000000e-01 +1.00000000000000e+00 +4.99999999393549e-01 +1.67331999819292e+00 -5.01868048580067e-10 +3.42499999629478e+00
+6.00000000000000e-01 +1.00000000000000e+00 +5.00000000522463e-01 +1.67332000163282e+00 +4.14325942647929e-10 +3.42500000345297e+00
+5.75000000000000e-01 +1.00000000000000e+00 +5.00000000253122e-01 +1.67332000079107e+00 +2.00683532942563e-10 +3.42500000167288e+00
+5.50000000000000e-01 +1.00000000000000e+00 +5.00000000003969e-01 +1.67332000001235e+00 +3.07012448047312e-12 +3.42500000002601e+00
+5.25000000000000e-01 +1.00000000000000e+00 +4.99999999999872e-01 +1.67331999999953e+00 -1.46913628250049e-13 +3.42499999999890e+00
+5.00000000000000e-01 +1.00000000000000e+00 +4.99999999999003e-01 +1.67331999999689e+00 -8.11507300234627e-13 +3.42499999999339e+00
+4.75000000000000e-01 +1.00000000000000e+00 +4.99999999998946e-01 +1.67331999999670e+00 -8.51672017943519e-13 +3.42499999999302e+00
+4.50000000000000e-01 +1.00000000000000e+00 +4.99999999999413e-01 +1.67331999999816e+00 -4.74876016640774e-13 +3.42499999999611e+00
+4.25000000000000e-01 +1.00000000000000e+00 +4.99999999999997e-01 +1.67331999999999e+00 -3.08824147307334e-15 +3.42499999999998e+00
+4.00000000000000e-01 +1.00000000000000e+00 +4.99999999999997e-01 +1.67331999999999e+00 -3.01042538509101e-15 +3.42499999999998e+00
+3.75000000000000e-01 +1.00000000000000e+00 +5.00000000000000e-01 +1.67332000000000e+00 +3.82457136348491e-16 +3.42500000000000e+00
+3.50000000000000e-01 +1.00000000000000e+00 +5.00000000000001e-01 +1.67332000000000e+00 +1.72100762152508e-15 +3.42500000000001e+00
+3.25000000000000e-01 +1.00000000000000e+00 +4.99999999999999e-01 +1.67332000000000e+00 +3.43897788826335e-16 +3.42499999999999e+00
+3.00000000000000e-01 +1.00000000000000e+00 +4.99999999999999e-01 +1.67332000000000e+00 +3.68961991505797e-16 +3.42500000000000e+00
+2.75000000000000e-01 +1.00000000000000e+00 +5.00000000000000e-01 +1.67332000000000e+00 +4.82220000529456e-16 +3.42500000000000e+00
+2.50000000000000e-01 +1.00000000000000e+00 +5.00000000000000e-01 +1.67332000000000e+00 +4.24094897066278e-16 +3.42500000000000e+00
+2.25000000000000e-01 +1.00000000000000e+00 +5.00000000000000e-01 +1.67332000000000e+00 +4.25642109478617e-16 +3.42500000000000e+00
+2.00000000000000e-01 +1.00000000000000e+00 +5.00000000000000e-01 +1.67332000000000e+00 +4.06519200724215e-16 +3.42500000000000e+00
+1.75000000000000e-01 +1.00000000000000e+00 +5.00000000000000e-01 +1.67332000000000e+00 +2.36520948954702e-16 +3.42500000000000e+00
+1.50000000000000e-01 +1.00000000000000e+00 +5.00000000000000e-01 +1.67332000000000e+00 +1.63932731934453e-16 +3.42500000000000e+00
+1.25000000000000e-01 +1.00000000000000e+00 +5.00000000000000e-01 +1.67332000000000e+00 +2.97064075705635e-16 +3.42500000000000e+00
+1.00000000000000e-01 +1.00000000000000e+00 +5.00000000000000e-01 +1.67332000000000e+00 +4.80777197965456e-16 +3.42500000000000e+00
+7.50000000000000e-02 +1.00000000000000e+00 +5.00000000000000e-01 +1.67332000000000e+00 +4.33849390092482e-16 +3.42500000000000e+00
+5.00000000000000e-02 +1.00000000000000e+00 +5.00000000000000e-01 +1.67332000000000e+00 +2.20724071587253e-16 +3.42500000000000e+00
+2.50000000000000e-02 +1.00000000000000e+00 +5.00000000000000e-01 +1.67332000000000e+00 +7.57681171637855e-17 +3.42500000000000e+00
+0.00000000000000e+00 +1.00000000000000e+00 +5.00000000000000e-01 +1.67332000000000e+00 +2.85091291587936e-17 +3.42500000000000e+00
+0.00000000000000e+00 +9.75000000000000e-01 +5.00000000000000e-01 +1.67332000000000e+00 -1.76499837415178e-18 +3.42500000000000e+00
+0.00000000000000e+00 +9.50000000000000e-01 +5.00000000000000e-01 +1.67332000000000e+00 -2.40621054828889e-17 +3.42500000000000e+00
+0.00000000000000e+00 +9.25000000000000e-01 +5.00000000000000e-01 +1.67332000000000e+00 -9.65467456217522e-18 +3.42500000000000e+00
+0.00000000000000e+00 +9.00000000000000e-01 +5.00000000000000e-01 +1.67332000000000e+00 -1.73299525826086e-17 +3.42500000000000e+00
+0.00000000000000e+00 +8.75000000000000e-01 +5.00000000000000e-01 +1.67332000000000e+00 -8.45188363036451e-18 +3.42500000000000e+00
+0.00000000000000e+00 +8.50000000000000e-01 +5.00000000000000e-01 +1.67332000000000e+00 +6.92636574143522e-18 +3.42500000000000e+00
+0.00000000000000e+00 +8.25000000000000e-01 +5.00000000000000e-01 +1.67332000000000e+00 -7.83510866677900e-18 +3.42500000000000e+00
+0.00000000000000e+00 +8.00000000000000e-01 +5.00000000000000e-01 +1.67332000000000e+00 -1.15724654675681e-18 +3.42500000000000e+00
+0.00000000000000e+00 +7.75000000000000e-01 +5.00000000000000e-01 +1.67332000000000e+00 +2.45047607215624e-18 +3.42500000000000e+00
+0.00000000000000e+00 +7.50000000000000e-01 +5.00000000000000e-01 +1.67332000000000e+00 +1.71915007950680e-17 +3.42500000000000e+00
+0.00000000000000e+00 +7.25000000000000e-01 +5.00000000000000e-01 +1.67332000000000e+00 +2.03037099638702e-17 +3.42500000000000e+00
+0.00000000000000e+00 +7.00000000000000e-01 +5.00000000000000e-01 +1.67332000000000e+00 +9.62540296315341e-18 +3.42500000000000e+00
+0.00000000000000e+00 +6.75000000000000e-01 +5.00000000000000e-01 +1.67332000000000e+00 +1.29710151109333e-17 +3.42500000000000e+00
+0.00000000000000e+00 +6.50000000000000e-01 +5.00000000000000e-01 +1.67332000000000e+00 -1.27389736332492e-18 +3.42500000000000e+00
+0.00000000000000e+00 +6.25000000000000e-01 +5.00000000000000e-01 +1.67332000000000e+00 -8.29041619004786e-18 +3.42500000000000e+00
+0.00000000000000e+00 +6.00000000000000e-01 +5.00000000000000e-01 +1.67332000000000e+00 -1.08480482319259e-16 +3.42500000000000e+00
+0.00000000000000e+00 +5.75000000000000e-01 +5.00000000000000e-01 +1.67332000000000e+00 -8.46302662578702e-17 +3.42500000000000e+00
+0.00000000000000e+00 +5.50000000000000e-01 +5.00000000000000e-01 +1.67332000000000e+00 -4.97377746627725e-18 +3.42500000000000e+00
+0.00000000000000e+00 +5.25000000000000e-01 +5.00000000000000e-01 +1.67332000000000e+00 -3.46944695195361e-18 +3.42500000000000e+00
+0.00000000000000e+00 +5.00000000000000e-01 +7.37544135101275e-01 +2.22746295836425e+00 -3.00866102864727e-17 +4.90109925551932e+00
+0.00000000000000e+00 +4.75000000000000e-01 +1.00000000000000e+00 +2.83972000000000e+00 -4.37204526054780e-17 +6.53200000000000e+00
+0.00000000000000e+00 +4.50000000000000e-01 +1.00000000000000e+00 +2.83972000000000e+00 -1.24297849844832e-17 +6.53200000000000e+00
+0.00000000000000e+00 +4.25000000000000e-01 +1.00000000000000e+00 +2.83972000000000e+00 -3.37150876742734e-17 +6.53200000000000e+00
+0.00000000000000e+00 +4.00000000000000e-01 +1.00000000000000e+00 +2.83972000000000e+00 -3.17153487649244e-17 +6.53200000000000e+00
+0.00000000000000e+00 +3.75000000000000e-01 +1.00000000000000e+00 +2.83972000000000e+00 -4.47187404908213e-18 +6.53200000000000e+00
+0.00000000000000e+00 +3.50000000000000e-01 +1.00000000000000e+00 +2.83972000000000e+00 +3.62047805496885e-17 +6.53200000000000e+00
+0.00000000000000e+00 +3.25000000000000e-01 +1.00000000000000e+00 +2.83972000000000e+00 -8.22874558438260e-18 +6.53200000000000e+00
+0.00000000000000e+00 +3.00000000000000e-01 +1.00000000000000e+00 +2.83972000000000e+00 -3.97757209084412e-17 +6.53200000000000e+00
+0.00000000000000e+00 +2.75000000000000e-01 +1.00000000000000e+00 +2.83972000000000e+00 -2.78218652947699e-17 +6.53200000000000e+00
+0.00000000000000e+00 +2.50000000000000e-01 +1.00000000000000e+00 +2.83972000000000e+00 -1.79782944033765e-17 +6.53200000000000e+00
+0.00000000000000e+00 +2.25000000000000e-01 +1.00000000000000e+00 +2.83972000000000e+00 -4.50773394131538e-17 +6.53200000000000e+00
+0.00000000000000e+00 +2.00000000000000e-01 +1.00000000000000e+00 +2.83972000000000e+00 -4.70155603811379e-17 +6.53200000000000e+00
+0.00000000000000e+00 +1.75000000000000e-01 +1.00000000000000e+00 +2.83972000000000e+00 +1.91544828388109e-18 +6.53200000000000e+00
+0.00000000000000e+00 +1.50000000000000e-01 +1.00000000000000e+00 +2.83972000000000e+00 +3.42865999225558e-17 +6.53200000000000e+00
+0.00000000000000e+00 +1.25000000000000e-01 +1.00000000000000e+00 +2.83972000000000e+00 +2.71865896853092e-17 +6.53200000000000e+00
+0.00000000000000e+00 +1.00000000000000e-01 +1.00000000000000e+00 +2.83972000000000e+00 +5.44279354792782e-17 +6.53200000000000e+00
+0.00000000000000e+00 +7.50000000000000e-02 +1.00000000000000e+00 +2.83972000000000e+00 +2.01274230882720e-17 +6.53200000000000e+00
+0.00000000000000e+00 +5.00000000000000e-02 +1.00000000000000e+00 +2.83972000000000e+00 -3.80853251499148e-17 +6.53200000000000e+00
+0.00000000000000e+00 +2.50000000000000e-02 +1.00000000000000e+00 +2.83972000000000e+00 -6.89095501478558e-18 +6.53200000000000e+00
+0.00000000000000e+00 +0.00000000000000e+00 +1.00000000000000e+00 +2.83972000000000e+00 +1.22175671414027e-17 +6.53200000000000e+00
+1.76067859427900e-01 +9.01411173721300e-01 +5.00000000000000e-01 +1.67332000000000e+00 +2.61708521192052e-16 +3.42500000000000e+00
+2.77787664716100e-01 +8.57473891107500e-01 +4.99999999944944e-01 +1.67331999982701e+00 -4.23419568205520e-11 +3.42499999963660e+00
+8.09614327019600e-01 +1.02732013797000e-01 +9.88987423098269e-01 +2.81375496599882e+00 +1.17785235355477e-02 +6.46435490296813e+00
+8.98075897243000e-01 +2.06886983199700e-01 +8.12944177429620e-01 +2.37974740582551e+00 +1.81377892505035e-01 +5.37455586387856e+00
+2.92437971586100e-01 +1.41604070434200e-01 +1.00000022425024e+00 +2.83972051530980e+00 -2.70219711976323e-07 +6.53200134366282e+00
+1.46301559004100e-01 +2.78158689570800e-01 +9.99995195652752e-01 +2.83970907559194e+00 +4.39320777344034e-06 +6.53197209694513e+00
+2.22630111126100e-01 +8.85173166876600e-01 +5.00000000000314e-01 +1.67332000000098e+00 +2.44884515912258e-13 +3.42500000000208e+00
+8.17067973321000e-02 +1.57977535815800e-01 +9.99999999928468e-01 +2.83971999983987e+00 +1.47083180003915e-10 +6.53199999957443e+00
+1.09514122679900e-01 +7.75013383199000e-01 +4.99999999994765e-01 +1.67331999998429e+00 -1.25200328184419e-12 +3.42499999996689e+00
+1.60503193394600e-01 +7.57198214548200e-02 +1.00000000005310e+00 +2.83972000011612e+00 -4.82801734951305e-11 +6.53200000030119e+00
+9.15038477806600e-01 +8.46027268205800e-01 +7.27430487305749e-01 +2.34552625217651e+00 +2.40833717146308e-01 +4.91171853598682e+00
+8.44451393944000e-01 +9.24874726183100e-01 +5.00050359680057e-01 +1.67347432352772e+00 +4.22583653490842e-05 +3.42532818348694e+00
+8.70691352413400e-01 +2.74160329754000e-01 +7.25505198955150e-01 +2.15066452271265e+00 +2.50419153229379e-01 +4.82658943793532e+00
+3.90109248236300e-02 +9.74295567838200e-01 +5.00000000000000e-01 +1.67332000000000e+00 +1.05648235736038e-16 +3.42500000000000e+00
+9.59997876892300e-01 +9.84363339518400e-01 +5.00062083082672e-01 +1.67351457134673e+00 +5.00625289492616e-05 +3.42541172472024e+00
+4.96795166800300e-01 +3.34343717414100e-01 +8.25990050795048e-01 +2.41298686130812e+00 +1.69880622974547e-01 +5.45596201541809e+00
+3.47558293650800e-02 +1.87163540564400e-02 +1.00000000000000e+00 +2.83972000000000e+00 +7.44201372051042e-17 +6.53200000000000e+00
+1.63254699076800e-01 +3.24360605994300e-01 +1.00018771215001e+00 +2.84015824326147e+00 -1.88902249274922e-04 +6.53313796262396e+00
+1.56448841022600e-01 +6.74588484268100e-01 +5.00002658863503e-01 +1.67332830591877e+00 +2.08464620426748e-06 +3.42501765448514e+00
+1.09056575379300e-01 +9.36414401231100e-01 +5.00000000000000e-01 +1.67332000000000e+00 +3.16623641473467e-17 +3.42500000000000e+00
+9.20432784105800e-01 +1.60263526847000e-01 +8.69293272972391e-01 +2.52266201584449e+00 +1.31080154457839e-01 +5.72544507479698e+00
+8.53108629003000e-01 +7.32600559719800e-02 +9.94029477583040e-01 +2.82566998543372e+00 +6.44111830022967e-03 +6.49534943020851e+00
+6.05907547092400e-02 +8.76050700243700e-01 +5.00000000000000e-01 +1.67332000000000e+00 +6.66407994983674e-17 +3.42500000000000e+00
+8.90884357815300e-01 +7.92151752511400e-01 +8.78838746791290e-01 +2.77791940069608e+00 +4.25841988334546e-01 +5.89812090883719e+00
+8.63661483129300e-01 +7.35453810879100e-01 +8.72359327097412e-01 +2.76087942386119e+00 +4.15446822535697e-01 +5.85533236761394e+00
+7.22091263758200e-01 +8.65900767930600e-01 +4.99923653015624e-01 +1.67308052645263e+00 -6.16297013095868e-05 +3.42449286915885e+00
+7.80727999568300e-02 +8.22597149268800e-01 +5.00000000000001e-01 +1.67332000000000e+00 +9.44629783986334e-16 +3.42500000000001e+00
+3.35680400867100e-02 +9.24818465912900e-01 +5.00000000000000e-01 +1.67332000000000e+00 +1.10491616526636e-16 +3.42500000000000e+00
+8.87309222277300e-01 +9.47524605748200e-01 +5.00025132719536e-01 +1.67339836984953e+00 +2.07959769923648e-05 +3.42516732845897e+00
+9.52231344635200e-01 +9.02604083411300e-01 +5.15404262671187e-01 +1.72060843007649e+00 +1.37521372898019e-02 +3.52643479257042e+00
+5.75951086923700e-02 +1.08505839640500e-01 +1.00000000000002e+00 +2.83972000000004e+00 -2.71805744961096e-14 +6.53200000000010e+00
+1.15396799796600e-01 +5.30012942716800e-02 +1.00000000000963e+00 +2.83972000002233e+00 -9.76665643248559e-12 +6.53200000005830e+00
+7.38060742023500e-01 +1.30380465129300e-01 +9.92123459261888e-01 +2.82122760537466e+00 +8.51145947314206e-03 +6.48369192595631e+00
+2.44165111435000e-01 +1.13240454599700e-01 +1.00000000359597e+00 +2.83972000779420e+00 +2.31575985180458e-09 +6.53200001986261e+00
+1.18874199531300e-01 +2.27635721100700e-01 +1.00000008107127e+00 +2.83972018868842e+00 -7.06719681201758e-08 +6.53200049228715e+00
+8.40162212847400e-01 +6.92100873206100e-01 +8.68805618788535e-01 +2.74802283894439e+00 +4.12458404137153e-01 +5.82977356977360e+00
+9.66612977972500e-01 +7.19979005915600e-02 +9.55948496655944e-01 +2.73503324666839e+00 +4.61276623425584e-02 +6.26116550809036e+00
+3.27873634794000e-01 +8.34442956989100e-01 +5.00000003203978e-01 +1.67332000997595e+00 +2.48244316006666e-09 +3.42500002089893e+00
+4.97994414723200e-01 +6.62438340851000e-01 +8.57711865563237e-01 +2.71777392635787e+00 +3.97796406751770e-01 +5.75853217267048e+00
+6.74864009425700e-01 +8.36361562578700e-01 +4.99836982223787e-01 +1.67280783998823e+00 -1.30836638811911e-04 +3.42391684798444e+00
+8.42960130429100e-01 +3.26591345003100e-01 +6.66014364281754e-01 +1.98937545079355e+00 +2.90552300851609e-01 +4.45026088591333e+00
+6.76539464093900e-01 +1.59835981560100e-01 +9.90263523921964e-01 +2.81681533502091e+00 +1.04606698211903e-02 +6.47226187402883e+00
+9.60989474941200e-01 +2.43090644290100e-02 +9.93763978732564e-01 +2.82509044492095e+00 +6.99587581277410e-03 +6.49375042688806e+00
+9.05692236021900e-01 +5.15308797031200e-02 +9.93044478690145e-01 +2.82337701020016e+00 +7.44900163857419e-03 +6.48934205603247e+00
+7.92081316533700e-01 +9.03500638407500e-01 +5.00016201463267e-01 +1.67336771466895e+00 +1.82858698190688e-05 +3.42510748739412e+00
+1.32925833354300e-01 +7.24774719375800e-01 +5.00000097418526e-01 +1.67332030568960e+00 +7.91459499945723e-08 +3.42500064455018e+00
+1.97808677248700e-01 +9.69626414031700e-01 +5.00000000000000e-01 +1.67332000000000e+00 +3.86090486657234e-16 +3.42500000000000e+00
+2.97257711089100e-01 +9.51835930090100e-01 +5.00000000000019e-01 +1.67332000000006e+00 +1.67202322739297e-14 +3.42500000000013e+00
+7.78951748307800e-01 +2.78077858612600e-02 +1.00073566990790e+00 +2.84144751542579e+00 -7.75914455409605e-04 +6.53651180768653e+00
+9.68387084307500e-01 +2.14049604245400e-01 +7.69984332090272e-01 +2.26835259582926e+00 +2.16772210573647e-01 +5.10590789663517e+00
+3.04810011412100e-01 +5.10808994333000e-02 +9.99999997000566e-01 +2.83971999300164e+00 +3.75920473508783e-09 +6.53199998172864e+00
+3.69207836152400e-01 +4.58807893126900e-02 +1.00000000624229e+00 +2.83972001198871e+00 +1.06790407269327e-08 +6.53200003075150e+00
+4.44538285777300e-02 +3.05177815893500e-01 +1.00000009779442e+00 +2.83972010032040e+00 -1.50295567722306e-07 +6.53200054636954e+00
+2.48839549731800e-01 +9.62115627069900e-01 +4.99999999999999e-01 +1.67332000000000e+00 -4.12534294684965e-17 +3.42499999999999e+00
+2.50859735119800e-02 +1.78224859911300e-01 +1.00000000000117e+00 +2.83972000000216e+00 -7.79720130470795e-13 +6.53200000000574e+00
+3.08199274630100e-02 +7.67752037312600e-01 +5.00000000000031e-01 +1.67332000000009e+00 +2.77256226909799e-14 +3.42500000000020e+00
+1.74338007156200e-01 +8.55187020880600e-01 +4.99999999999963e-01 +1.67331999999989e+00 -3.04349092376342e-14 +3.42499999999976e+00
+1.62413543158900e-01 +2.69961899512900e-02 +1.00000000000833e+00 +2.83972000001942e+00 -8.14740606826590e-12 +6.53200000005073e+00
+9.67522383184300e-01 +8.19874748339100e-01 +8.77607762386888e-01 +2.77402966039099e+00 +4.21996181207928e-01 +5.88896174706632e+00
+8.38659780092600e-01 +9.76359183568500e-01 +5.00005908316227e-01 +1.67333855423481e+00 +4.83884573693715e-06 +3.42503946532967e+00
+9.25297018143500e-01 +2.51060806672700e-01 +7.37140322407630e-01 +2.18165334344824e+00 +2.42045833200000e-01 +4.89972507103216e+00
+9.51363315332300e-01 +3.02512822428300e-01 +6.64545593451524e-01 +1.98554767237854e+00 +2.91749738938164e-01 +4.44127506075065e+00
+4.12702891022900e-01 +1.63892046736700e-01 +1.00001302700904e+00 +2.83975129649884e+00 -3.39012313334712e-06 +6.53208189374532e+00
+4.79012857828700e-01 +1.08602656476600e-01 +9.99967015267523e-01 +2.83964281625178e+00 +3.63688565272516e-05 +6.53179837577106e+00
+5.78703059669200e-02 +4.33892266093400e-01 +9.99188607628877e-01 +2.83816062480975e+00 +9.85240596067450e-04 +6.52716845901197e+00