TITLE = Unstructured grid data
VARIABLES =  "x0" "x1" "x2" "rho" "rhoU" "rhoV" "rhoW" "rhoE"
ZONE   T= "ZONE0 Tetra", N=293, E=1196, F=FEPOINT, ET=TETRAHEDRON, SOLUTIONTIME=0.00000000000000e+00	
+2.00000000000000e-01 +1.00000000000000e+00 +1.00000000000000e+00 +4.99999999999954e-01 +1.67331999999986e+00 -3.54292530228219e-14 -1.52334117417410e-15 +3.42499999999971e+00
+4.00000000000000e-01 +1.00000000000000e+00 +1.00000000000000e+00 +5.01497165252232e-01 +1.67847263696464e+00 +5.49488170362156e-04 -1.71892628542518e-04 +3.43499810953047e+00
+6.00000000000000e-01 +1.00000000000000e+00 +1.00000000000000e+00 +5.04688401868084e-01 +1.68821524082406e+00 +3.47775749258415e-03 +3.39411045836912e-04 +3.45586199242865e+00
+8.00000000000000e-01 +1.00000000000000e+00 +1.00000000000000e+00 +5.99699251366293e-01 +1.97454053440942e+00 +9.52949117861925e-02 -7.85884802644126e-03 +4.07766741682854e+00
+1.00000000000000e+00 +1.00000000000000e+00 +1.00000000000000e+00 +6.41451885765915e-01 +2.10520409234605e+00 +1.29759722473231e-01 -9.39739132615182e-03 +4.35096360905396e+00
+1.00000000000000e+00 +1.00000000000000e+00 +8.00000000000000e-01 +6.31499820912059e-01 +2.06888046871756e+00 +1.23028783563022e-01 -1.53271570587799e-02 +4.28637613877798e+00
+1.00000000000000e+00 +1.00000000000000e+00 +6.00000000000000e-01 +5.87675341210166e-01 +1.93956126209416e+00 +7.74968079554304e-02 -1.87007119352122e-02 +4.00044648354376e+00
+1.00000000000000e+00 +1.00000000000000e+00 +4.00000000000000e-01 +5.56174838804156e-01 +1.84499042109388e+00 +5.16558401648405e-02 -8.96491447048915e-03 +3.79530525277133e+00
+1.00000000000000e+00 +1.00000000000000e+00 +2.00000000000000e-01 +5.63300545347700e-01 +1.86935889664092e+00 +5.67414754004202e-02 -1.16508033146769e-02 +3.84138791796002e+00
+1.00000000000000e+00 +1.00000000000000e+00 +0.00000000000000e+00 +5.30024658895872e-01 +1.76743341694777e+00 +2.45396045874533e-02 -6.09785678717909e-03 +3.62335787523813e+00
+8.00000000000000e-01 +1.00000000000000e+00 +0.00000000000000e+00 +4.99119326657562e-01 +1.67123171764426e+00 -7.53652781415336e-04 -7.36321874722378e-04 +3.41948516573063e+00
+6.00000000000000e-01 +1.00000000000000e+00 +0.00000000000000e+00 +4.98386338891662e-01 +1.66822317693352e+00 -1.12440405695694e-03 +7.56725226570354e-06 +3.41430471866166e+00
+4.00000000000000e-01 +1.00000000000000e+00 +0.00000000000000e+00 +5.00002787989183e-01 +1.67332733319144e+00 +5.19546714988915e-08 +6.04087246326578e-07 +3.42501450819664e+00
+2.00000000000000e-01 +1.00000000000000e+00 +0.00000000000000e+00 +4.99999999999994e-01 +1.67331999999998e+00 -8.95820863234649e-15 -1.80043811781738e-14 +3.42499999999997e+00
+0.00000000000000e+00 +1.00000000000000e+00 +0.00000000000000e+00 +5.00000000000000e-01 +1.67332000000000e+00 -1.06426195392059e-27 -3.23967596567163e-18 +3.42500000000000e+00
+0.00000000000000e+00 +1.00000000000000e+00 +2.00000000000000e-01 +5.00000000000000e-01 +1.67332000000000e+00 -1.04688027546790e-17 -3.43923818023136e-19 +3.42500000000000e+00
+0.00000000000000e+00 +1.00000000000000e+00 +4.00000000000000e-01 +5.00000000000000e-01 +1.67332000000000e+00 -5.90904760959557e-20 -1.05315257284518e-17 +3.42500000000000e+00
+0.00000000000000e+00 +1.00000000000000e+00 +6.00000000000000e-01 +5.00000000000000e-01 +1.67332000000000e+00 -2.68382665649963e-18 +3.57727073334652e-18 +3.42500000000000e+00
+0.00000000000000e+00 +1.00000000000000e+00 +8.00000000000000e-01 +5.00000000000000e-01 +1.67332000000000e+00 +2.23221660162120e-18 +2.34789890163887e-18 +3.42500000000000e+00
+0.00000000000000e+00 +1.00000000000000e+00 +1.00000000000000e+00 +5.00000000000000e-01 +1.67332000000000e+00 +9.71902789657476e-18 +9.71902789702111e-18 +3.42500000000000e+00
+1.00000000000000e+00 +8.00000000000000e-01 +1.00000000000000e+00 +7.27921043056154e-01 +2.31773602513493e+00 +2.69459495105008e-01 -2.87967723321252e-02 +4.90162429326459e+00
+1.00000000000000e+00 +6.00000000000000e-01 +1.00000000000000e+00 +7.19558108253918e-01 +2.20157168151977e+00 +3.36995304479522e-01 -3.34756108936408e-02 +4.81578181272489e+00
+1.00000000000000e+00 +4.00000000000000e-01 +1.00000000000000e+00 +7.05365947089267e-01 +2.09227886964376e+00 +2.49481158747932e-01 -2.01926376785657e-02 +4.69375163078545e+00
+1.00000000000000e+00 +2.00000000000000e-01 +1.00000000000000e+00 +8.62025760231019e-01 +2.49826789467977e+00 +1.23017655036067e-01 -1.18159799059171e-02 +5.67634570292105e+00
+1.00000000000000e+00 +0.00000000000000e+00 +1.00000000000000e+00 +9.54988386314992e-01 +2.73370634351062e+00 +4.37368042636158e-02 -4.66176126422694e-03 +6.25581810256864e+00
+1.00000000000000e+00 +0.00000000000000e+00 +8.00000000000000e-01 +9.32297738205369e-01 +2.67620523747500e+00 +6.39210228739265e-02 -6.82545856206909e-03 +6.11452744731322e+00
+1.00000000000000e+00 +0.00000000000000e+00 +6.00000000000000e-01 +9.29355301613223e-01 +2.67204401221147e+00 +6.58187803784281e-02 -7.77765658741664e-03 +6.09884836931934e+00
+1.00000000000000e+00 +0.00000000000000e+00 +4.00000000000000e-01 +9.10383294478433e-01 +2.62510256879498e+00 +7.45503482517276e-02 -1.84128786350788e-02 +5.98251779648439e+00
+1.00000000000000e+00 +0.00000000000000e+00 +2.00000000000000e-01 +9.03642620469453e-01 +2.60753797525473e+00 +8.28602973681503e-02 -1.88894626365711e-02 +5.94001897506054e+00
+1.00000000000000e+00 +0.00000000000000e+00 +0.00000000000000e+00 +8.87969077201670e-01 +2.56870489392055e+00 +1.11496113599038e-01 -1.66437474891663e-02 +5.84160357233624e+00
+1.00000000000000e+00 +2.00000000000000e-01 +0.00000000000000e+00 +7.96356760439747e-01 +2.32819929607644e+00 +1.98338312827891e-01 -2.24735360672245e-02 +5.26467407425826e+00
+1.00000000000000e+00 +4.00000000000000e-01 +0.00000000000000e+00 +7.04263916805468e-01 +2.10512549034313e+00 +3.24078976994685e-01 -3.41822495814840e-02 +4.68816569993198e+00
+1.00000000000000e+00 +6.00000000000000e-01 +0.00000000000000e+00 +7.69030192277395e-01 +2.38691068350907e+00 +3.55765922383880e-01 -4.53282918540559e-02 +5.15191082725744e+00
+1.00000000000000e+00 +8.00000000000000e-01 +0.00000000000000e+00 +6.76754589453179e-01 +2.19191087197897e+00 +1.84555889332300e-01 -2.88292949520096e-02 +4.57706555118833e+00
+8.00000000000000e-01 +0.00000000000000e+00 +1.00000000000000e+00 +9.70838273757751e-01 +2.77025143485377e+00 +2.85349853856893e-02 -3.32557273605263e-03 +6.35249492593215e+00
+6.00000000000000e-01 +0.00000000000000e+00 +1.00000000000000e+00 +9.95581262099670e-01 +2.82910645417511e+00 +4.85963201495330e-03 -1.18174048896831e-04 +6.50465076483526e+00
+4.00000000000000e-01 +0.00000000000000e+00 +1.00000000000000e+00 +9.99938823897932e-01 +2.83958166416616e+00 +9.70705377631183e-05 +4.40084631985042e-06 +6.53163697627262e+00
+2.00000000000000e-01 +0.00000000000000e+00 +1.00000000000000e+00 +9.99997149078274e-01 +2.83971395392953e+00 +2.30732505466947e-06 -1.52612028388277e-06 +6.53198442538034e+00
+0.00000000000000e+00 +0.00000000000000e+00 +1.00000000000000e+00 +1.00000000000000e+00 +2.83972000000000e+00 +1.52718158939613e-17 -1.52718158931119e-17 +6.53200000000000e+00
+0.00000000000000e+00 +0.00000000000000e+00 +8.00000000000000e-01 +1.00000000005392e+00 +2.83972000011587e+00 -3.54512200179411e-11 +2.03610882314868e-11 +6.53200000030085e+00
+0.00000000000000e+00 +0.00000000000000e+00 +6.00000000000000e-01 +1.00000000001616e+00 +2.83972000003197e+00 -9.91243323760642e-12 -8.60184676499495e-12 +6.53200000008225e+00
+0.00000000000000e+00 +0.00000000000000e+00 +4.00000000000000e-01 +1.00000000000000e+00 +2.83972000000000e+00 -5.62776403552062e-16 -4.30914509308092e-16 +6.53200000000001e+00
+0.00000000000000e+00 +0.00000000000000e+00 +2.00000000000000e-01 +1.00000000000000e+00 +2.83972000000000e+00 +1.68173844835243e-18 -1.41145994399600e-17 +6.53200000000000e+00
+0.00000000000000e+00 +0.00000000000000e+00 +0.00000000000000e+00 +1.00000000000000e+00 +2.83972000000000e+00 -2.75691601477739e-18 +1.74465144649191e-18 +6.53200000000000e+00
+2.00000000000000e-01 +0.00000000000000e+00 +0.00000000000000e+00 +9.99244803384594e-01 +2.83795778971375e+00 +7.75146943463493e-04 +1.20602491492723e-04 +6.52740583763799e+00
+4.00000000000000e-01 +0.00000000000000e+00 +0.00000000000000e+00 +9.88695997546628e-01 +2.81284332307842e+00 +1.12995556310726e-02 -7.33741398223182e-04 +6.46291528854306e+00
+6.00000000000000e-01 +0.00000000000000e+00 +0.00000000000000e+00 +9.64225103758930e-01 +2.75475958948621e+00 +3.70302927077759e-02 -3.20728191662956e-03 +6.31289328174701e+00
+8.00000000000000e-01 +0.00000000000000e+00 +0.00000000000000e+00 +9.06326555815676e-01 +2.61434229794989e+00 +9.47839554288141e-02 -1.11717501554343e-02 +5.95592762488255e+00
+0.00000000000000e+00 +2.00000000000000e-01 +1.00000000000000e+00 +1.00000000000049e+00 +2.83972000000094e+00 +1.45848208375855e-13 +4.11143455422842e-13 +6.53200000000240e+00
+0.00000000000000e+00 +4.00000000000000e-01 +1.00000000000000e+00 +1.00000022863434e+00 +2.83972064706964e+00 +3.54512919371625e-07 +8.91685423233730e-08 +6.53200206828968e+00
+0.00000000000000e+00 +6.00000000000000e-01 +1.00000000000000e+00 +6.43162038474809e-01 +2.00728893011238e+00 +5.58276961906721e-07 +2.44479990925468e-07 +4.31461066766332e+00
+0.00000000000000e+00 +8.00000000000000e-01 +1.00000000000000e+00 +4.99999999999993e-01 +1.67331999999998e+00 +9.18573296002004e-16 +1.32037693544711e-15 +3.42499999999999e+00
+0.00000000000000e+00 +8.00000000000000e-01 +0.00000000000000e+00 +5.00000000000000e-01 +1.67332000000000e+00 -1.92549937255294e-17 -1.28116099570938e-18 +3.42500000000000e+00
+0.00000000000000e+00 +6.00000000000000e-01 +0.00000000000000e+00 +4.99999999999958e-01 +1.67331999999991e+00 -5.57580831130314e-14 +1.36434901951953e-14 +3.42499999999977e+00
+0.00000000000000e+00 +4.00000000000000e-01 +0.00000000000000e+00 +7.72913470472922e-01 +2.30997254391919e+00 -1.01877007156954e-13 +4.99263036958155e-14 +5.12088430551872e+00
+0.00000000000000e+00 +2.00000000000000e-01 +0.00000000000000e+00 +1.00000000000000e+00 +2.83972000000000e+00 -1.51591579018119e-15 +2.87639535497292e-15 +6.53200000000000e+00
+1.25138125000000e-01 +1.00000000000000e+00 +6.81584305555600e-01 +4.99999999999996e-01 +1.67331999999999e+00 -5.49224557806699e-15 +3.93108097042995e-16 +3.42499999999997e+00
+6.96922782186900e-01 +1.00000000000000e+00 +8.07334171075800e-01 +5.16702646474447e-01 +1.72757363044285e+00 +1.01466584504227e-02 -1.88910749246245e-03 +3.53651932194731e+00
+6.58333312169300e-01 +1.00000000000000e+00 +1.50253619047600e-01 +4.98468454902335e-01 +1.66849088632697e+00 -9.75462663891509e-04 +5.12765645778616e-05 +3.41480189517258e+00
+1.73897695767200e-01 +1.00000000000000e+00 +3.40778576719600e-01 +5.00005018209715e-01 +1.67333603473159e+00 +3.47516040699185e-06 -1.71778752086643e-06 +3.42503326461327e+00
+4.42809559712800e-01 +1.00000000000000e+00 +7.83028681028000e-01 +4.99908072808882e-01 +1.67304473573035e+00 -9.48020683605307e-05 +6.54789159719332e-06 +3.42444619137379e+00
+8.01908897707200e-01 +1.00000000000000e+00 +4.69286119929500e-01 +5.01832019649313e-01 +1.67964987480958e+00 +5.52962483224199e-04 +1.29775675357025e-04 +3.43745278934543e+00
+4.59462140652600e-01 +1.00000000000000e+00 +1.69785004409200e-01 +4.99985270149523e-01 +1.67325663589456e+00 -2.14760953433640e-05 +1.97837108589032e-05 +3.42489348474858e+00
+2.36567192460300e-01 +1.00000000000000e+00 +8.11647017195800e-01 +4.99999999999908e-01 +1.67331999999973e+00 -7.74626534854554e-14 +1.54285574528179e-15 +3.42499999999957e+00
+8.19551185185200e-01 +1.00000000000000e+00 +6.44003534391500e-01 +5.19192358991426e-01 +1.73611346365127e+00 +6.62775703170202e-03 -8.52738119716009e-03 +3.55329379445686e+00
+8.12845458553800e-01 +1.00000000000000e+00 +2.60706701940000e-01 +5.03608447363598e-01 +1.68512474575820e+00 +2.36084227454987e-03 -6.19140710057988e-04 +3.44903421286378e+00
+4.53960928571400e-01 +1.00000000000000e+00 +5.40018746031700e-01 +5.00082780067550e-01 +1.67356492838924e+00 +7.42513789683761e-05 +2.02733407599077e-05 +3.42554682682309e+00
+2.62271166225800e-01 +1.00000000000000e+00 +1.76146459435600e-01 +5.00009479850627e-01 +1.67335059616063e+00 +6.24688249135582e-06 -5.21757006661282e-06 +3.42506468353859e+00
+2.32989179618600e-01 +1.00000000000000e+00 +5.51507758487700e-01 +5.00000429301006e-01 +1.67332142168750e+00 +1.05652696237286e-07 +1.90994668404884e-06 +3.42500287589501e+00
+6.35045687830700e-01 +1.00000000000000e+00 +6.18326031746000e-01 +5.00611434750160e-01 +1.67519598073433e+00 +4.68110725461308e-04 +9.13427114563141e-05 +3.42903263929466e+00
+6.06278676618800e-01 +1.00000000000000e+00 +3.67600583270300e-01 +4.99025642594753e-01 +1.67021930922560e+00 -8.25436718708272e-04 +3.03118689258193e-04 +3.41847927252738e+00
+3.59279149030000e-01 +1.00000000000000e+00 +3.55044038800700e-01 +5.00055017258457e-01 +1.67347903013636e+00 +3.22114573539425e-05 -2.96978988042583e-06 +3.42535808614223e+00
+1.00000000000000e+00 +3.22921219450700e-01 +8.29294882842000e-01 +7.49008716367545e-01 +2.20433034190087e+00 +2.16388742962289e-01 -2.43779832952871e-02 +4.96901586289440e+00
+1.00000000000000e+00 +8.47058493827200e-01 +6.81495301587300e-01 +7.43894113446348e-01 +2.37398182993432e+00 +2.71000562015649e-01 -3.48964691821471e-02 +5.00946084543357e+00
+1.00000000000000e+00 +3.41657142857100e-01 +1.52874232804200e-01 +6.90568258001411e-01 +2.04970060309642e+00 +2.78075558119882e-01 -3.25880814937951e-02 +4.59549016590247e+00
+1.00000000000000e+00 +8.26696155202800e-01 +3.39620603174600e-01 +7.02325447448067e-01 +2.26399447575840e+00 +2.21735783292039e-01 -3.33518122687734e-02 +4.74625012886231e+00
+1.00000000000000e+00 +5.61914970605500e-01 +8.45566296296300e-01 +7.03782422818850e-01 +2.12605616694546e+00 +3.19105098825528e-01 -3.17282652030402e-02 +4.70315772160947e+00
+1.00000000000000e+00 +1.97577792475000e-01 +4.84812777777800e-01 +8.03629735622045e-01 +2.34726164802546e+00 +1.71204603221546e-01 -2.60349714996518e-02 +5.31195895864682e+00
+1.00000000000000e+00 +5.40542880658400e-01 +1.71803518518500e-01 +7.20961194210074e-01 +2.19830283580079e+00 +3.51981725020337e-01 -4.15860324117728e-02 +4.82339616383379e+00
+1.00000000000000e+00 +7.52485649617900e-01 +8.35336931216900e-01 +7.64966888317445e-01 +2.39144073646460e+00 +3.38806241683600e-01 -3.08514719827982e-02 +5.13189909756432e+00
+1.00000000000000e+00 +1.81115763668400e-01 +6.65875873015900e-01 +8.44950400997855e-01 +2.45533691446245e+00 +1.45051095963456e-01 -1.60476022914565e-02 +5.57113406760752e+00
+1.00000000000000e+00 +1.87134241622600e-01 +2.66840052910100e-01 +7.92769228119506e-01 +2.31864958799281e+00 +1.80382237470102e-01 -3.07981175522957e-02 +5.24395049987586e+00
+1.00000000000000e+00 +5.50947048794800e-01 +5.53798192239900e-01 +6.90207078798764e-01 +2.09323026276074e+00 +3.25505383348207e-01 -4.93316228402032e-02 +4.61452472630405e+00
+1.00000000000000e+00 +7.37753700764300e-01 +1.76787954144600e-01 +7.62075942596210e-01 +2.41649340945464e+00 +3.11964428828776e-01 -4.51873795392442e-02 +5.12827116566075e+00
+1.00000000000000e+00 +7.76030582010600e-01 +5.20423371126200e-01 +7.30788604160692e-01 +2.31965371472912e+00 +2.77679120593381e-01 -4.28412728384939e-02 +4.91934811876066e+00
+1.00000000000000e+00 +3.57702037037000e-01 +6.33178298060000e-01 +6.99733722150104e-01 +2.07254529459711e+00 +2.55884630879046e-01 -3.62593442662903e-02 +4.65746336789918e+00
+1.00000000000000e+00 +3.93443701184200e-01 +3.78721511715800e-01 +6.80051448136489e-01 +2.03070630529025e+00 +2.77972453129380e-01 -3.63597658341806e-02 +4.53685607330112e+00
+1.00000000000000e+00 +6.41399850088200e-01 +3.58266067019400e-01 +7.45194004385134e-01 +2.31333509628762e+00 +3.47385626475620e-01 -4.50130437177259e-02 +4.99858492073657e+00
+1.00000000000000e+00 +4.98231492063500e-01 +7.11460603174600e-01 +6.78205433102632e-01 +2.03175398946973e+00 +3.01766903667652e-01 -4.31359324003985e-02 +4.52892199437948e+00
+1.00000000000000e+00 +6.67276504997100e-01 +6.88749603174600e-01 +7.56547043404993e-01 +2.32797500159296e+00 +3.62938069398531e-01 -4.77540990526234e-02 +5.06274187434395e+00
+1.61716181657800e-01 +0.00000000000000e+00 +7.06371957672000e-01 +1.00000109587019e+00 +2.83972245129755e+00 -1.81340276693140e-06 +4.33360003346719e-07 +6.53200629164005e+00
+5.43713487384400e-01 +0.00000000000000e+00 +2.84820739660900e-01 +9.93982219951844e-01 +2.82561856210000e+00 +5.51211775135544e-03 -1.59375971271363e-03 +6.49527680819719e+00
+8.47898494331100e-01 +0.00000000000000e+00 +6.44034612244900e-01 +9.66612589860723e-01 +2.76061133039031e+00 +3.12202132797375e-02 -2.45057188505299e-03 +6.32754724381802e+00
+1.72286114050600e-01 +0.00000000000000e+00 +2.82923086419800e-01 +1.00001127519721e+00 +2.83974679365041e+00 +6.41577082945754e-07 +2.54284923627786e-05 +6.53207112085274e+00
+7.76555951121200e-01 +0.00000000000000e+00 +1.37961201814100e-01 +9.47504570544602e-01 +2.71652700172003e+00 +4.69519993177895e-02 -1.23816925637135e-02 +6.21182745339836e+00
+5.13854059316800e-01 +0.00000000000000e+00 +7.64906438829500e-01 +9.99801711958511e-01 +2.83926182811631e+00 +5.93379309757304e-05 -2.58170409136851e-06 +6.53081865099851e+00
+8.44769909297100e-01 +0.00000000000000e+00 +4.44013605442200e-01 +9.54849368348114e-01 +2.73356332948859e+00 +3.69268414529821e-02 -7.88430313577431e-03 +6.25704152475036e+00
+3.69206477282300e-01 +0.00000000000000e+00 +1.69471642731200e-01 +9.98869739905238e-01 +2.83703728398174e+00 +7.14260587448749e-04 -3.59652540713270e-04 +6.52505117677387e+00
+3.37118227765200e-01 +0.00000000000000e+00 +8.19285198790600e-01 +9.99994376321749e-01 +2.83970777214465e+00 +1.60109309061550e-05 +4.30473211853656e-06 +6.53196804730163e+00
+3.19579695977200e-01 +0.00000000000000e+00 +4.03372727387300e-01 +1.00001165841078e+00 +2.83974669411680e+00 -6.42191468221222e-05 +8.31230196119880e-05 +6.53207160251624e+00
+7.34860833963200e-01 +0.00000000000000e+00 +7.98217876039300e-01 +9.92177004938779e-01 +2.82112278191417e+00 +6.42896935424462e-03 -6.94965439123322e-04 +6.48405934239915e+00
+7.36680175359000e-01 +0.00000000000000e+00 +3.06211927437600e-01 +9.76664664404638e-01 +2.78519854787449e+00 +1.67636701596782e-02 -6.98562530796631e-03 +6.39009915747283e+00
+6.48536687182800e-01 +0.00000000000000e+00 +5.24362664939000e-01 +9.92635820020252e-01 +2.82231916860131e+00 +6.55384960042653e-03 -1.21045038039407e-04 +6.48683612149253e+00
+1.55663062904200e-01 +0.00000000000000e+00 +5.00152477954100e-01 +1.00000099160049e+00 +2.83972212611135e+00 -4.95354884381552e-07 -5.64914738446482e-07 +6.53200551354282e+00
+3.43100345595000e-01 +0.00000000000000e+00 +6.33880434618300e-01 +1.00000542925457e+00 +2.83973226540963e+00 +6.02089700401352e-06 +3.70711569493862e-06 +6.53203102345599e+00
+4.58150853447600e-01 +0.00000000000000e+00 +5.22940900478700e-01 +9.99549898166458e-01 +2.83865693654636e+00 +5.95133810178489e-05 +3.25822900137644e-04 +6.52921978545726e+00
+0.00000000000000e+00 +8.38283818342200e-01 +7.06371957672000e-01 +4.99999999999999e-01 +1.67331999999999e+00 -3.92342014724742e-16 +3.72565339793598e-16 +3.42499999999999e+00
+0.00000000000000e+00 +4.56286512615600e-01 +2.84820739660900e-01 +7.80714752850713e-01 +2.32817062183332e+00 -9.38745097816977e-08 +9.37232364311191e-08 +5.16936109358234e+00
+0.00000000000000e+00 +1.52101505668900e-01 +6.44034612244900e-01 +1.00000000096244e+00 +2.83972000234409e+00 +1.58352640905803e-10 -3.81530616281058e-09 +6.53200000631143e+00
+0.00000000000000e+00 +8.27713885949400e-01 +2.82923086419800e-01 +5.00000000000000e-01 +1.67332000000000e+00 +5.41776730457751e-16 +1.47383577432178e-15 +3.42500000000000e+00
+0.00000000000000e+00 +2.23444048878800e-01 +1.37961201814100e-01 +1.00000000000001e+00 +2.83972000000002e+00 -2.25196650167553e-14 +3.70385876191522e-16 +6.53200000000004e+00
+0.00000000000000e+00 +4.86145940683200e-01 +7.64906438829500e-01 +7.73876955067054e-01 +2.31222043204273e+00 +3.29524627219599e-07 +1.24756987395222e-07 +5.12687218378333e+00
+0.00000000000000e+00 +1.55230090702900e-01 +4.44013605442200e-01 +1.00000000000015e+00 +2.83972000000034e+00 +4.15632858194230e-14 -1.31361521866156e-13 +6.53200000000088e+00
+0.00000000000000e+00 +6.30793522717700e-01 +1.69471642731200e-01 +4.99999999999941e-01 +1.67331999999981e+00 -9.75104175812820e-14 +8.75891910021943e-14 +3.42499999999962e+00
+0.00000000000000e+00 +6.62881772234800e-01 +8.19285198790600e-01 +5.00000149269708e-01 +1.67332061698422e+00 +2.39800852542385e-07 +1.41566680298363e-07 +3.42500182790696e+00
+0.00000000000000e+00 +6.80420304022800e-01 +4.03372727387300e-01 +5.00000006642245e-01 +1.67331957847380e+00 +3.64191930189088e-09 +4.73027043059432e-08 +3.42499978465222e+00
+0.00000000000000e+00 +2.65139166036800e-01 +7.98217876039300e-01 +1.00000001557922e+00 +2.83971997746389e+00 +2.05149141074000e-08 -5.27827433423660e-09 +6.53200003204979e+00
+0.00000000000000e+00 +2.63319824641000e-01 +3.06211927437600e-01 +1.00000000000001e+00 +2.83972000000001e+00 -4.77992285990340e-15 +4.67306585356112e-16 +6.53200000000002e+00
+0.00000000000000e+00 +3.51463312817200e-01 +5.24362664939000e-01 +9.99999965603575e-01 +2.83971966146932e+00 -8.44204669911448e-08 +2.96043523001104e-08 +6.53199952622703e+00
+0.00000000000000e+00 +8.44336937095800e-01 +5.00152477954100e-01 +4.99999999999998e-01 +1.67331999999999e+00 -2.25750381969116e-15 +4.38960924258305e-16 +3.42499999999999e+00
+0.00000000000000e+00 +6.56899654405000e-01 +6.33880434618300e-01 +4.99999999999877e-01 +1.67331999999959e+00 -1.76280343409711e-13 -1.11308960746676e-14 +3.42499999999918e+00
+0.00000000000000e+00 +5.41849146552400e-01 +5.22940900478700e-01 +6.93351011489040e-01 +2.12436831600699e+00 -1.09431774622595e-07 +1.09186523485225e-07 +4.62648250301495e+00
+8.61230188964500e-01 +3.47975003779300e-01 +1.00000000000000e+00 +7.63125329084894e-01 +2.24037736588900e+00 +2.01587121700091e-01 -1.66871197128997e-02 +5.05498299472012e+00
+3.36937551020400e-01 +1.42810019652300e-01 +1.00000000000000e+00 +9.99639526143984e-01 +2.83885453581219e+00 +3.70036072443813e-04 -4.67312281788445e-05 +6.52976951131900e+00
+6.67721322751300e-01 +8.50811534391500e-01 +1.00000000000000e+00 +6.13923585914180e-01 +2.01264270851467e+00 +1.16857779036335e-01 -2.34382762236036e-02 +4.16960007567035e+00
+1.43373555555600e-01 +6.59442511463800e-01 +1.00000000000000e+00 +6.29850429976024e-01 +1.97767646936227e+00 +1.00035198820371e-01 -3.49581779574594e-02 +4.24489838605714e+00
+5.50296146744400e-01 +1.88569139941700e-01 +1.00000000000000e+00 +9.53625564106912e-01 +2.72496439187261e+00 +4.05260025756580e-02 -8.24123565282868e-04 +6.24380356708131e+00
+8.44280316200600e-01 +5.51851418493300e-01 +1.00000000000000e+00 +7.02412421487989e-01 +2.12342509825062e+00 +2.99989428869430e-01 -3.36285601399406e-02 +4.69149510833415e+00
+1.62448984630900e-01 +4.49427817670300e-01 +1.00000000000000e+00 +9.05619007607573e-01 +2.61273202827746e+00 +1.00051589967663e-01 -2.93313623504712e-02 +5.95585910525657e+00
+4.60257739984900e-01 +8.04942091206900e-01 +1.00000000000000e+00 +5.82244966871822e-01 +1.91025013081452e+00 +9.81680146316522e-02 -3.07345943197235e-02 +3.95941964777630e+00
+7.55142086167800e-01 +1.81205069287000e-01 +1.00000000000000e+00 +9.13240203309100e-01 +2.62643341402869e+00 +7.85847930079871e-02 -4.87960220186998e-03 +5.99396605377648e+00
+8.33097072310400e-01 +7.48594553204000e-01 +1.00000000000000e+00 +7.33996768147535e-01 +2.31926803653842e+00 +2.90198720951160e-01 -4.05290153340475e-02 +4.93592612223234e+00
+1.70599646006600e-01 +2.46391500797900e-01 +1.00000000000000e+00 +9.99007157777485e-01 +2.83730089999643e+00 +1.02163919849361e-03 -2.82489630968466e-04 +6.52571018086614e+00
+2.48963897707200e-01 +8.24679027042900e-01 +1.00000000000000e+00 +5.19077252276813e-01 +1.73087222809033e+00 +2.14231344593307e-02 -7.38183336565724e-03 +3.54997612313096e+00
+5.33611116780000e-01 +3.73238823381200e-01 +1.00000000000000e+00 +8.30161630409951e-01 +2.40906690213739e+00 +1.48943880806036e-01 -1.04700129497590e-02 +5.47267386477706e+00
+6.70047432602700e-01 +6.48111321491600e-01 +1.00000000000000e+00 +7.06321192273811e-01 +2.20175260216376e+00 +2.73584258579707e-01 -4.94827063987697e-02 +4.74109692576830e+00
+3.63212186049000e-01 +3.41491855631100e-01 +1.00000000000000e+00 +9.01133007340784e-01 +2.59239978196179e+00 +8.98550463091432e-02 -5.93419949552072e-03 +5.91930096788087e+00
+3.23901506676700e-01 +6.12078499622100e-01 +1.00000000000000e+00 +6.90556918333684e-01 +2.13262422712497e+00 +1.55913989797269e-01 -4.04840352361983e-02 +4.62876038397237e+00
+6.85334244502000e-01 +4.17121527252900e-01 +1.00000000000000e+00 +7.60441237998116e-01 +2.23526409607186e+00 +2.07255347383533e-01 -2.12123589188620e-02 +5.03663613794946e+00
+5.10534887251200e-01 +5.38817432812600e-01 +1.00000000000000e+00 +7.33804656460192e-01 +2.21462843434799e+00 +2.31349124665931e-01 -4.48984399771108e-02 +4.89023348937420e+00
+1.61691245679000e-01 +6.79296950617300e-01 +0.00000000000000e+00 +5.08517392808566e-01 +1.69998467739235e+00 +8.73537969585181e-03 -2.32135327867358e-03 +3.47932319866002e+00
+4.63814672839500e-01 +3.57933141975300e-01 +0.00000000000000e+00 +7.90732880310795e-01 +2.35364925338262e+00 +2.38332178948891e-01 -2.58981350454719e-02 +5.25136781649860e+00
+1.57735808642000e-01 +2.72994432098800e-01 +0.00000000000000e+00 +9.30492447998768e-01 +2.67026028822595e+00 +7.26435717364405e-02 -4.73176401769118e-03 +6.10074818972399e+00
+7.43911566725500e-01 +1.92278177542600e-01 +0.00000000000000e+00 +8.27867180555999e-01 +2.40964289350984e+00 +1.69836218649845e-01 -1.52744153831270e-02 +5.46184079307349e+00
+6.77503067901200e-01 +6.38025895061700e-01 +0.00000000000000e+00 +6.85427328626137e-01 +2.16731057769060e+00 +2.33943362195691e-01 -3.54869035375619e-02 +4.61179478205784e+00
+3.41989646531500e-01 +2.12488219429700e-01 +0.00000000000000e+00 +9.11201644797398e-01 +2.62113455026215e+00 +9.39155021726487e-02 -5.88961753095803e-03 +5.98230256523604e+00
+8.16857292769000e-01 +8.04724162257500e-01 +0.00000000000000e+00 +6.11147858176776e-01 +1.99559339964116e+00 +1.23519441256894e-01 -2.01974384203760e-02 +4.14792878935129e+00
+3.72101221487400e-01 +7.38486002939400e-01 +0.00000000000000e+00 +5.20413496841977e-01 +1.74053129661872e+00 +1.84025352023327e-02 -8.24422298268958e-03 +3.55792939230379e+00
+8.31790641975300e-01 +3.71881432098800e-01 +0.00000000000000e+00 +7.25777581029353e-01 +2.15394239152609e+00 +2.98175920981030e-01 -3.01614327652257e-02 +4.82027851718140e+00
+2.51926832892400e-01 +4.66504383708100e-01 +0.00000000000000e+00 +6.75332754100559e-01 +2.09700623114510e+00 +1.22594426580701e-01 -1.54276165797194e-02 +4.52589843269905e+00
+5.56577904174000e-01 +1.87097688859500e-01 +0.00000000000000e+00 +8.76924532367921e-01 +2.53302948570293e+00 +1.25306902522608e-01 -9.95912976478213e-03 +5.76752317355535e+00
+5.67242424309200e-01 +8.00009469429700e-01 +0.00000000000000e+00 +5.25932834478278e-01 +1.76052830284831e+00 +1.84640384828029e-02 -1.22782031439877e-02 +3.59496948330183e+00
+2.34243511111100e-01 +8.33944588888900e-01 +0.00000000000000e+00 +5.00000151992138e-01 +1.67332045827271e+00 +6.84883694367487e-09 -1.34220108748404e-07 +3.42500095188648e+00
+8.28494887566100e-01 +5.47216005291000e-01 +0.00000000000000e+00 +7.45957056274853e-01 +2.28391737855124e+00 +3.45368517669695e-01 -4.08978895215912e-02 +4.98372683830465e+00
+5.05094969870700e-01 +5.75191231628500e-01 +0.00000000000000e+00 +6.56524451268586e-01 +2.08947769171844e+00 +1.90962080853419e-01 -3.53247951452567e-02 +4.42805532625410e+00
+6.42190530780200e-01 +4.20740773704500e-01 +0.00000000000000e+00 +7.54014427373656e-01 +2.25848742223113e+00 +3.08734810129767e-01 -3.40290060407964e-02 +5.01463568808708e+00
+1.58278334565900e-01 +4.91305261976100e-01 +8.32828793080000e-01 +8.06319267484134e-01 +2.39282409979805e+00 +1.10931149531370e-01 -2.04496861481536e-02 +5.33625078479464e+00
+6.51359088524600e-01 +3.47343926629300e-01 +2.25415603048600e-01 +7.42639810085050e-01 +2.18455759050691e+00 +2.33058466802180e-01 -4.51992026277117e-02 +4.92257907269390e+00
+6.62137960618500e-01 +8.09370190512800e-01 +6.80739514153300e-01 +6.47791340405818e-01 +2.10135372443058e+00 +1.60004569456193e-01 -1.36896912121568e-02 +4.38539481978478e+00
+8.51065149697800e-01 +8.62992779638100e-01 +8.92727927360300e-01 +6.85210069352490e-01 +2.21778502319189e+00 +1.92106139123073e-01 -1.89510056102363e-02 +4.63179105328305e+00
+3.18939535583300e-01 +8.04310522888400e-01 +3.32384095774100e-01 +5.13503051769273e-01 +1.71573674951816e+00 +1.28648833489439e-02 -3.35824505371045e-03 +3.51358300406858e+00
+4.81654930398400e-01 +1.15852372505500e-01 +1.20564680870500e-01 +9.61826186214714e-01 +2.74829630191636e+00 +3.94916734197975e-02 -4.69289695405295e-03 +6.29785094681392e+00
+1.73651167302700e-01 +1.16204966529500e-01 +8.72808735818900e-01 +9.99965544268737e-01 +2.83964211968154e+00 +3.63568998017087e-05 -8.34384900771807e-06 +6.53179720668175e+00
+8.42635372922900e-01 +5.48984684035800e-01 +3.44130490515400e-01 +7.01867472156055e-01 +2.14546688244511e+00 +3.35580949604026e-01 -4.46203540733362e-02 +4.70137163661544e+00
+1.21382772541900e-01 +8.65740711346300e-01 +8.79504743716900e-01 +5.00000000000025e-01 +1.67332000000013e+00 -5.44522233779859e-14 -1.35513313349841e-14 +3.42500000000018e+00
+5.95334026945400e-01 +1.97590087658500e-01 +8.22317275942100e-01 +9.31737255815831e-01 +2.67250629126568e+00 +6.58209898509272e-02 -9.44126498385906e-03 +6.11076588823792e+00
+1.26381526526700e-01 +3.65570782181700e-01 +1.57126432931800e-01 +8.74195627678455e-01 +2.54546235927241e+00 +1.00456327069797e-01 -1.96364791225027e-02 +5.74959425409543e+00
+7.76671885157600e-01 +2.36097687494800e-01 +4.94955817343300e-01 +8.33561314498511e-01 +2.42297221061575e+00 +1.47805037404457e-01 -1.98276410837981e-02 +5.49826260938794e+00
+1.27158933520100e-01 +7.06629067830500e-01 +1.18014106079100e-01 +5.00000000001133e-01 +1.67332000000388e+00 +7.81315688608695e-13 -4.71451272128387e-13 +3.42500000000744e+00